name,description,type,exact_mass,hc_ratio,nc_ratio,oc_ratio,pc_ratio,sc_ratio,dbe,dbe_o,Molecular.Formula
surfactants_Terrabase_neg,curated list of 192 common surfactants compiled by http://www.terrabase-inc.com/ (download: 01.06.2022),blacklist,568.4186481,2.069,0,0.345,0,0,0,-10,C29H60O10
surfactants_Terrabase_neg,curated list of 192 common surfactants compiled by http://www.terrabase-inc.com/ (download: 01.06.2022),blacklist,570.3979127,2.071,0,0.393,0,0,0,-11,C28H58O11
surfactants_Terrabase_neg,curated list of 192 common surfactants compiled by http://www.terrabase-inc.com/ (download: 01.06.2022),blacklist,572.3924334,1.806,0,0.29,0,0,4,-5,C31H56O9
surfactants_Terrabase_neg,curated list of 192 common surfactants compiled by http://www.terrabase-inc.com/ (download: 01.06.2022),blacklist,580.4550336,2.065,0,0.29,0,0,0,-9,C31H64O9
surfactants_Terrabase_neg,curated list of 192 common surfactants compiled by http://www.terrabase-inc.com/ (download: 01.06.2022),blacklist,582.4342982,2.067,0,0.333,0,0,0,-10,C30H62O10
surfactants_Terrabase_neg,curated list of 192 common surfactants compiled by http://www.terrabase-inc.com/ (download: 01.06.2022),blacklist,594.4706837,2.062,0,0.281,0,0,0,-9,C32H66O9
surfactants_Terrabase_neg,curated list of 192 common surfactants compiled by http://www.terrabase-inc.com/ (download: 01.06.2022),blacklist,596.4499483,2.065,0,0.323,0,0,0,-10,C31H64O10
surfactants_Terrabase_neg,curated list of 192 common surfactants compiled by http://www.terrabase-inc.com/ (download: 01.06.2022),blacklist,602.4029981,1.812,0,0.312,0,0,4,-6,C32H58O10
surfactants_Terrabase_neg,curated list of 192 common surfactants compiled by http://www.terrabase-inc.com/ (download: 01.06.2022),blacklist,610.4655983,2.062,0,0.312,0,0,0,-10,C32H66O10
surfactants_Terrabase_neg,curated list of 192 common surfactants compiled by http://www.terrabase-inc.com/ (download: 01.06.2022),blacklist,616.4186481,1.818,0,0.303,0,0,4,-6,C33H60O10
surfactants_Terrabase_neg,curated list of 192 common surfactants compiled by http://www.terrabase-inc.com/ (download: 01.06.2022),blacklist,624.3266794,1.625,0.062,0.188,0,0.062,8,2,C32H52O6N2S2
surfactants_Terrabase_neg,curated list of 192 common surfactants compiled by http://www.terrabase-inc.com/ (download: 01.06.2022),blacklist,624.4812484,2.061,0,0.303,0,0,0,-10,C33H68O10
surfactants_Terrabase_neg,curated list of 192 common surfactants compiled by http://www.terrabase-inc.com/ (download: 01.06.2022),blacklist,626.4605129,2.062,0,0.344,0,0,0,-11,C32H66O11
surfactants_Terrabase_neg,curated list of 192 common surfactants compiled by http://www.terrabase-inc.com/ (download: 01.06.2022),blacklist,634.3598129,2.071,0,0.464,0,0.036,0,-13,C28H58O13S1
surfactants_Terrabase_neg,curated list of 192 common surfactants compiled by http://www.terrabase-inc.com/ (download: 01.06.2022),blacklist,638.596159,2,0.051,0.103,0,0,2,-2,C39H78O4N2
surfactants_Terrabase_neg,curated list of 192 common surfactants compiled by http://www.terrabase-inc.com/ (download: 01.06.2022),blacklist,640.476163,2.061,0,0.333,0,0,0,-11,C33H68O11
surfactants_Terrabase_neg,curated list of 192 common surfactants compiled by http://www.terrabase-inc.com/ (download: 01.06.2022),blacklist,642.6274591,2.103,0.051,0.103,0,0,0,-4,C39H82O4N2
surfactants_Terrabase_neg,curated list of 192 common surfactants compiled by http://www.terrabase-inc.com/ (download: 01.06.2022),blacklist,646.4292128,1.824,0,0.324,0,0,4,-7,C34H62O11
surfactants_Terrabase_neg,curated list of 192 common surfactants compiled by http://www.terrabase-inc.com/ (download: 01.06.2022),blacklist,658.4292128,1.771,0,0.314,0,0,5,-6,C35H62O11
surfactants_Terrabase_neg,curated list of 192 common surfactants compiled by http://www.terrabase-inc.com/ (download: 01.06.2022),blacklist,660.4448629,1.829,0,0.314,0,0,4,-7,C35H64O11
surfactants_Terrabase_neg,curated list of 192 common surfactants compiled by http://www.terrabase-inc.com/ (download: 01.06.2022),blacklist,666.5281986,2.056,0,0.278,0,0,0,-10,C36H74O10
surfactants_Terrabase_neg,curated list of 192 common surfactants compiled by http://www.terrabase-inc.com/ (download: 01.06.2022),blacklist,676.4067631,2.065,0,0.419,0,0.032,0,-13,C31H64O13S1
surfactants_Terrabase_neg,curated list of 192 common surfactants compiled by http://www.terrabase-inc.com/ (download: 01.06.2022),blacklist,680.3892796,1.667,0.056,0.167,0,0.056,8,2,C36H60O6N2S2
surfactants_Terrabase_neg,curated list of 192 common surfactants compiled by http://www.terrabase-inc.com/ (download: 01.06.2022),blacklist,682.5231132,2.056,0,0.306,0,0,0,-11,C36H74O11
surfactants_Terrabase_neg,curated list of 192 common surfactants compiled by http://www.terrabase-inc.com/ (download: 01.06.2022),blacklist,698.5180278,2.056,0,0.333,0,0,0,-12,C36H74O12
surfactants_Terrabase_neg,curated list of 192 common surfactants compiled by http://www.terrabase-inc.com/ (download: 01.06.2022),blacklist,704.4710776,1.838,0,0.324,0,0,4,-8,C37H68O12
surfactants_Terrabase_neg,curated list of 192 common surfactants compiled by http://www.terrabase-inc.com/ (download: 01.06.2022),blacklist,708.5387633,2,0,0.289,0,0,1,-10,C38H76O11
surfactants_Terrabase_neg,curated list of 192 common surfactants compiled by http://www.terrabase-inc.com/ (download: 01.06.2022),blacklist,713.4020121,1.909,0.03,0.394,0,0.03,3,-10,C33H63O13N1S1
surfactants_Terrabase_neg,curated list of 192 common surfactants compiled by http://www.terrabase-inc.com/ (download: 01.06.2022),blacklist,714.5129424,2.056,0,0.361,0,0,0,-13,C36H74O13
surfactants_Terrabase_neg,curated list of 192 common surfactants compiled by http://www.terrabase-inc.com/ (download: 01.06.2022),blacklist,728.5285925,2.054,0,0.351,0,0,0,-13,C37H76O13
surfactants_Terrabase_neg,curated list of 192 common surfactants compiled by http://www.terrabase-inc.com/ (download: 01.06.2022),blacklist,734.4816423,1.842,0,0.342,0,0,4,-9,C38H70O13
surfactants_Terrabase_neg,curated list of 192 common surfactants compiled by http://www.terrabase-inc.com/ (download: 01.06.2022),blacklist,736.4518799,1.7,0.05,0.15,0,0.05,8,2,C40H68O6N2S2
surfactants_Terrabase_neg,curated list of 192 common surfactants compiled by http://www.terrabase-inc.com/ (download: 01.06.2022),blacklist,744.666547,2.044,0,0.111,0,0.022,0,-5,C45H92O5S1
surfactants_Terrabase_neg,curated list of 192 common surfactants compiled by http://www.terrabase-inc.com/ (download: 01.06.2022),blacklist,758.5391572,2.053,0,0.368,0,0,0,-14,C38H78O14
surfactants_Terrabase_neg,curated list of 192 common surfactants compiled by http://www.terrabase-inc.com/ (download: 01.06.2022),blacklist,770.5755427,2.05,0,0.325,0,0,0,-13,C40H82O13
surfactants_Terrabase_neg,curated list of 192 common surfactants compiled by http://www.terrabase-inc.com/ (download: 01.06.2022),blacklist,786.5704573,2.05,0,0.35,0,0,0,-14,C40H82O14
surfactants_Terrabase_neg,curated list of 192 common surfactants compiled by http://www.terrabase-inc.com/ (download: 01.06.2022),blacklist,792.5235071,1.854,0,0.341,0,0,4,-10,C41H76O14
surfactants_Terrabase_neg,curated list of 192 common surfactants compiled by http://www.terrabase-inc.com/ (download: 01.06.2022),blacklist,802.5653719,2.05,0,0.375,0,0,0,-15,C40H82O15
surfactants_Terrabase_neg,curated list of 192 common surfactants compiled by http://www.terrabase-inc.com/ (download: 01.06.2022),blacklist,814.6017574,2.048,0,0.333,0,0,0,-14,C42H86O14
surfactants_Terrabase_neg,curated list of 192 common surfactants compiled by http://www.terrabase-inc.com/ (download: 01.06.2022),blacklist,830.5966721,2.048,0,0.357,0,0,0,-15,C42H86O15
surfactants_Terrabase_neg,curated list of 192 common surfactants compiled by http://www.terrabase-inc.com/ (download: 01.06.2022),blacklist,866.5602865,1.864,0,0.364,0,0,4,-12,C44H82O16
surfactants_Terrabase_neg,curated list of 192 common surfactants compiled by http://www.terrabase-inc.com/ (download: 01.06.2022),blacklist,880.5759366,1.867,0,0.356,0,0,4,-12,C45H84O16
surfactants_Terrabase_neg,curated list of 192 common surfactants compiled by http://www.terrabase-inc.com/ (download: 01.06.2022),blacklist,902.6541869,2.043,0,0.348,0,0,0,-16,C46H94O16
surfactants_Terrabase_neg,curated list of 192 common surfactants compiled by http://www.terrabase-inc.com/ (download: 01.06.2022),blacklist,910.5865013,1.87,0,0.37,0,0,4,-13,C46H86O17
surfactants_Terrabase_neg,curated list of 192 common surfactants compiled by http://www.terrabase-inc.com/ (download: 01.06.2022),blacklist,928.669837,2,0,0.333,0,0,1,-15,C48H96O16
surfactants_Terrabase_neg,curated list of 192 common surfactants compiled by http://www.terrabase-inc.com/ (download: 01.06.2022),blacklist,968.6283661,1.878,0,0.367,0,0,4,-14,C49H92O18